% Model:              buoyancy_free.mph
% Version:            COMSOL 6.2.0.339
% Date:               Feb 10 2025, 17:40
% Dimension:          2
% Nodes:              4256
% Expressions:        7
% Description:        Temperature
% Length unit:        m
% x                       y                        T (K) @ Ra=1             T (K) @ Ra=10            T (K) @ Ra=100           T (K) @ Ra=1000          T (K) @ Ra=10000         T (K) @ Ra=1E5           T (K) @ Ra=1E6
0.0076693196229356        0.02552188231107272      0.00766586042421915      0.007634811556969834     0.007333009140716759     0.005305809387206894     0.0045196345950181726    0.005734342509558924     0.008306256955950268
0                         0.030000000000000013     0                        0                        0                        0                        0                        0                        0
0                         0.020000000000000007     0                        0                        0                        0                        0                        0                        0
0.007654035255731745      0.015878464188420722     0.00765058270342323      0.007619593166472885     0.0073183359838452896    0.005292709397449157     0.004490403036910762     0.005631728466877053     0.007813710010416294
0                         0.010000000000000004     0                        0                        0                        0                        0                        0                        0
0                         0                        0                        0                        0                        0                        0                        0                        0
0.0068668152863041315     0.007607048862261397     0.006863717794919405     0.006835915068704859     0.006565622533830068     0.004747204632833814     0.004019281169793545     0.005012148237377376     0.00680846040014592
0.011034260205796675      0                        0.011029282858138508     0.01098460664460831      0.010550262494169358     0.007627457218431162     0.00645201515690222      0.008026330313130887     0.010812601407695957
0                         0.07                     0                        0                        0                        0                        0                        0                        0
0                         0.060000000000000026     0                        0                        0                        0                        0                        0                        0
0.00904059842049107       0.06538391726515017      0.009036532261419648     0.009000038793150476     0.00864563528864065      0.006287429659244635     0.0055771379298798435    0.007944300927703653     0.015292882954626696
0                         0.08000000000000003      0                        0                        0                        0                        0                        0                        0
0.008959730214123201      0.07545519435944804      0.008955708041686947     0.008919610536330553     0.008569167994561963     0.006245667250820549     0.005631226843242        0.008360476558986508     0.016973509519069573
0                         0.09000000000000002      0                        0                        0                        0                        0                        0                        0
0.008908233176209689      0.0854889451862134       0.008904244438111828     0.008868448307262411     0.008521059859734727     0.006227232915732134     0.005721129116673313     0.008870450175612436     0.0187267914515214
0                         0.05000000000000001      0                        0                        0                        0                        0                        0                        0
0.009201799503460194      0.05523852160681794      0.009197655346783214     0.00916046076510049      0.008799142361967308     0.006387394775938782     0.005587154722329187     0.007659800927202884     0.013781200837898239
0.008268703117756793      0.03512793965141947      0.008264974365672938     0.008231506581953566     0.007906242402633677     0.0057248609639201295    0.0049074295741019245    0.0063430699808839424    0.009791072779161155
0                         0.040000000000000015     0                        0                        0                        0                        0                        0                        0
0.008981202967126638      0.04510168992781651      0.008977154771744473     0.008940820541031555     0.008587770582477226     0.0062249971596535095    0.005383163564652661     0.007140625944205834     0.011892021444406946
0.017828538372577696      0.010523910235219147     0.01782049618120443      0.01774831031400934      0.017046525774487797     0.01232467664226805      0.010430275928070514     0.01299114178054617      0.017580995344538376
0.0243863778880401        0                        0.024375377765268578     0.02427664118724566      0.023316672545654237     0.01685375472285258      0.014231890238530743     0.01762767381074311      0.023453348392501485
0                         0.10000000000000002      0                        0                        0                        0                        0                        0                        0
0.008765178533827496      0.09547320885738747      0.008761267048359238     0.00872616562763629      0.008385658197804437     0.006147651939850319     0.005768708656851861     0.009343008967529735     0.020246196349267994
0                         0.11000000000000001      0                        0                        0                        0                        0                        0                        0
0.008643892383075212      0.10536842764054737      0.008640051187200378     0.00860558205201837      0.008271356331952652     0.006085861890950786     0.005843993404537292     0.009870847563853395     0.021724485325626836
0                         0.12000000000000005      0                        0                        0                        0                        0                        0                        0
0.008542433230993622      0.11526760663755842      0.008538656518031025     0.008504767630955118     0.008176326069617587     0.0060407835445904145    0.005946847397757683     0.010449722895745762     0.023173680036850747
0.040538720060796285      0                        0.04052043553695218      0.040356312883668616     0.0387604692627866       0.028006515694966098     0.02357312984679355      0.028981659272388525     0.037838070701038576
0.033969335607671514      0.013013572072134494     0.03395401261140402      0.033816474065838265     0.032479246540534114     0.023476075820699233     0.019820488972522015     0.024543614077475365     0.032730056371260564
0                         0.13000000000000006      0                        0                        0                        0                        0                        0                        0
0.00853254031281725       0.1253566723908432       0.008528791186084447     0.008495151566224627     0.008169296201821712     0.00606382862911413      0.006130682697514403     0.011173998639667245     0.024831315180347067
0.008809157029206045      0.13496869589431618      0.00880531343321096      0.008770828022331758     0.008436961828053853     0.006294064785941291     0.006538021115958426     0.012301787808514876     0.027282761460723618
0                         0.14000000000000004      0                        0                        0                        0                        0                        0                        0
0.008768652313920376      0.14486079396171955      0.008764858490163929     0.008730821673291528     0.008401498491170887     0.00630366782351536      0.006741119867719325     0.013056484639316515     0.028810703430423332
0                         0.15000000000000005      0                        0                        0                        0                        0                        0                        0
0.05021862354317602       0.014184162004066247     0.050195973320077546     0.049992663352093396     0.04801572360307866      0.034689931312729266     0.02917043752854273      0.035799035495055274     0.046767276598323304
0.059376728032910164      0                        0.059349956069094274     0.05910964520496415      0.05677254652891562      0.04099585410058108      0.03431230616214597      0.04169576919449453      0.05302349582027161
0.008650392914893685      0.1550051798798508       0.008646686960105574     0.00861344064070456      0.008291979963565975     0.006261418407188607     0.0069025751257315035    0.013710994859051502     0.030012043627159302
0                         0.16000000000000003      0                        0                        0                        0                        0                        0                        0
0                         0.17000000000000004      0                        0                        0                        0                        0                        0                        0
0.00880823346680659       0.16518151523451438      0.008804502289304047     0.008771032065151988     0.008447640537968202     0.006423831989120883     0.007305998616699239     0.01482622214834991      0.032141768535260025
0                         0.18000000000000005      0                        0                        0                        0                        0                        0                        0
0.008853312534846799      0.17509258977752265      0.008849608553083107     0.008816384753099156     0.008495618136655758     0.006508128139918619     0.007632473519718888     0.015756555356495786     0.03381576792923508
0.06914536917629295       0.01566107404724847      0.06911419572345244      0.06883437462230746      0.06611287996168229      0.04773226673108926      0.039889908923081634     0.048364978376235664     0.06179421202874689
0.07940475014765969       0                        0.07936897792906478      0.07904786946563969      0.07592409000873429      0.054781462872129226     0.045495575552919755     0.05449413756601355      0.06736633269322125
0.008934043152690613      0.18496341679980885      0.008930355770045707     0.00889728344218488      0.0085782347678786       0.006622353261081112     0.008003210616317155     0.01674725700933521      0.03558506729420113
0                         0.19000000000000003      0                        0                        0                        0                        0                        0                        0
0.08896757513303588       0.01594413147279219      0.08892750591837394      0.08856782224576566      0.08506846092030261      0.06136444707789823      0.050844836064957565     0.060713144449819935     0.07544615030789593
0.09943309537872358       0                        0.09938836862192592      0.0989868642941346       0.09507948712276977      0.06854218679961238      0.05639121272021441      0.06649529851958687      0.07997433509713184
0.009055225630387133      0.19491592494422805      0.009051545296000713     0.009018539020709425     0.008700408408591395     0.006773314629058611     0.00843930702037878      0.01785267510031038      0.037540964400832516
0                         0.20000000000000007      0                        0                        0                        0                        0                        0                        0
0.00898161059603693       0.20494009646339362      0.008978022859546797     0.008945850068285051     0.008636054162403114     0.006784393594991473     0.008716571396164484     0.01859280081359492      0.03869043255252597
0                         0.21000000000000005      0                        0                        0                        0                        0                        0                        0
0                         0.22000000000000003      0                        0                        0                        0                        0                        0                        0
0.008894383151835276      0.21512373286199177      0.008890897371093326     0.008859642057616116     0.008558997470221817     0.006788372247433579     0.008988429146491684     0.019284355821115488     0.03967798533093195
0                         0.23                     0                        0                        0                        0                        0                        0                        0
0.009094264015196219      0.22531164632398937      0.009090774132301867     0.009059485530798673     0.008758867196263944     0.007017291266868589     0.00957102824496642      0.020611283434553113     0.04193995886346494
0.10916040076660984       0.015867443447679375     0.10911132743717057      0.10867079838717768      0.10438303799090519      0.07522630611259833      0.06169174371093183      0.07245962910930527      0.08749259182274904
0.11946144060978736       0                        0.11940783344851068      0.11892658769867874      0.11424092796445558      0.08228249780572525      0.06697361773463385      0.07771410192579659      0.0911076998942269
0                         0.24000000000000005      0                        0                        0                        0                        0                        0                        0
0.009212098729581559      0.23539691744409322      0.009208643852810824     0.009177672849347939     0.008880477933152211     0.007189840541052278     0.010092147067521496     0.02177424835074437      0.04380427328344038
0                         0.2500000000000001       0                        0                        0                        0                        0                        0                        0
0.009241887759586528      0.24545293142699523      0.009238506004589508     0.009208194430410504     0.008917717668373765     0.007298012773525399     0.010528295650066676     0.022723258573470278     0.04523068378942669
0.12925119427689663       0.016047811000572735     0.1291932511289348       0.12867307009886877      0.12360736490243891      0.089000391681465        0.07215921525365633      0.08337253442059889      0.0980310846386343
0.13948978584085125       0                        0.13942740653563465      0.13886737775405705      0.13341147930593705      0.0960107728146428       0.07722515437814584      0.08817104651746172      0.10092926952839927
0                         0.27000000000000013      0                        0                        0                        0                        0                        0                        0
0                         0.2600000000000001       0                        0                        0                        0                        0                        0                        0
0.00911854530053245       0.265437827156171        0.009115389636954954     0.0090871129689636       0.008816969233874374     0.0073805563558164535    0.011213962470271163     0.0241373644830865       0.04712836058758286
0.009234026441771315      0.2554452746652975       0.009230736857209832     0.00920125561236787      0.008919150840883886     0.007380971677101905     0.010933453819933568     0.023576497323071956     0.04644797501105972
0                         0.2800000000000001       0                        0                        0                        0                        0                        0                        0
0.00905480046162791       0.27555858467419503      0.00905176442154904      0.00902456431302724      0.008765168198962931     0.007424873192128852     0.011561506467015715     0.02481739650711827      0.047980426560797144
0                         0.29000000000000004      0                        0                        0                        0                        0                        0                        0
0.009116298212348347      0.285657464811936        0.009113344345857026     0.009086885430058388     0.008835053547443345     0.0075756687355788095    0.012076325983314188     0.025832498571657776     0.049486953705689125
0.1493357088251796        0.016160106203232126     0.14926902465676653      0.1486703331434194       0.14283638913051602      0.10276240071196908      0.08228226659649994      0.0935151682205314       0.1071583991477572
0.15951813107191493       0                        0.15944712611307676      0.1588096136583464       0.15259462639650373      0.1097390498802005       0.08713816905170542      0.0978987513560305       0.10956495128565945
0                         0.30000000000000004      0                        0                        0                        0                        0                        0                        0
0.009126473672716053      0.295627722144196        0.009123623346414046     0.009098097179804284     0.008855669355036858     0.007687777078470578     0.012530985016513419     0.02669653890305179      0.050698596233391034
0                         0.3100000000000001       0                        0                        0                        0                        0                        0                        0
0.009131609520517508      0.30561121499058436      0.009128867637931014     0.009104318240218276     0.00887172303639369      0.007798244998697843     0.012980753876578056     0.02753211900950776      0.051886720222058196
0.16943811761430644       0.016170452342089157     0.1693628518422242       0.16868706395139646      0.16209702391564562      0.11654281729873071      0.09206832169009808      0.10293254782732154      0.11504441761604726
0.17954647630297882       0                        0.1794670333826566       0.1787537045285874       0.1717941709672425       0.12348256031334508      0.09671235672506688      0.10693634135391449      0.11713899963276388
0                         0.3200000000000001       0                        0                        0                        0                        0                        0                        0
0.009159106437253331      0.3156053882159105       0.009156472062174776     0.00913289129475524      0.008910075762169694     0.007932775469539284     0.013473908083890025     0.02843677579540427      0.05316876844262603
0                         0.33000000000000007      0                        0                        0                        0                        0                        0                        0
0.009159337984609987      0.3255616382216188       0.00915682204571029      0.00913430784308641      0.008922208238806491     0.008046069651115656     0.013927873777079375     0.029241954269629476     0.05431756570225323
0.18951190852528108       0.016189678862404255     0.18942828286160476      0.18867737029382536      0.18134864616889998      0.13032674324457696      0.10149969975290142      0.11165311723198147      0.12188675601918324
0.1995748215340426        0                        0.19948717161706878      0.19870008045898532      0.19101414853140722      0.13725927566507629      0.10595190928376023      0.11532292665542236      0.12377141253256944
0                         0.3400000000000001       0                        0                        0                        0                        0                        0                        0
0.009111919099180384      0.3354527903533722       0.009109537907582522     0.009088236358831143     0.008888241497273132     0.008120024210195724     0.014311136764463972     0.029884509233381974     0.05519550513180597
0                         0.35000000000000014      0                        0                        0                        0                        0                        0                        0
0.008941170170809596      0.34533807204032435      0.00893895624693941      0.008919158236928479     0.008733995641837395     0.008083827314808152     0.014492039345772036     0.030101332291719272     0.055380582432372476
0                         0.4100000000000001       0                        0                        0                        0                        0                        0                        0
0                         0.40000000000000013      0                        0                        0                        0                        0                        0                        0
0.009184114811324204      0.40562221367897466      0.009182672749799505     0.009169827630585227     0.009054713237892814     0.009079280195619386     0.01773099215946577      0.03564311688588592      0.06429385851508333
0.20956497406069796       0.016197621501577237     0.20947325061926578      0.2086495463147233       0.20060292389075443      0.14413888970082453      0.11058730001439233      0.119721803765188        0.12784038372632803
0.2196031667651065        0                        0.21950758504846188      0.21864918151687718      0.2102587291167176       0.15108960444098718      0.11486469729423292      0.12309764942853187      0.12957619736006426
0.2296063234172818        0.01620089237485068      0.22950680477608457      0.22861300389683767      0.2198726912440875       0.15800701623535354      0.11934575261020126      0.12718569217369427      0.13304574634293406
0.2396315119961705        0                        0.23952831802986285      0.2386014494290087       0.2295321412987021       0.16499613318923467      0.12346146157683756      0.1302997615056211       0.13466152445270876
0                         0.3600000000000001       0                        0                        0                        0                        0                        0                        0
0.008819337473970026      0.35541976656533053      0.00881727973192375      0.008798886139372188     0.008627630128861613     0.008092322238237684     0.014746445496087725     0.030462769318917126     0.05579775940769046
0                         0.3700000000000001       0                        0                        0                        0                        0                        0                        0
0.0089073216897713        0.36557449512604695      0.008905374732469018     0.008887979949319504     0.00872687228502274      0.00829619074113957      0.015355166066077968     0.03154525190673719      0.057567922088621444
0                         0.38000000000000006      0                        0                        0                        0                        0                        0                        0
0.009011546916696403      0.37564873718385966      0.009009713630934045     0.008993343847129976     0.008842666649681237     0.008520722833875831     0.016005256671252386     0.032697537335894374     0.059428396396020426
0                         0.39000000000000007      0                        0                        0                        0                        0                        0                        0
0.009100722082764084      0.38567558267332874      0.009099009022340364     0.009083722971226052     0.008944037998343061     0.00873381258158054      0.016632087279170274     0.033792719881902133     0.06123016590485401
0.009169336399732131      0.3956370665585322       0.009167753092351327     0.009153636197991049     0.009025764434710688     0.008931969087786483     0.017232228642822336     0.034821585105853224     0.06291734930184184
0                         0.4200000000000001       0                        0                        0                        0                        0                        0                        0
0.00918649744902545       0.41563442104638093      0.009185202714815764     0.009173683891312177     0.009071850332167735     0.009217722362030624     0.01821184951842197      0.03641840582999666      0.06554955973691325
0                         0.43000000000000005      0                        0                        0                        0                        0                        0                        0
0.00919104752962269       0.42564926481623294      0.009189900789652832     0.009179714256288265     0.009091220554042911     0.009358811615328207     0.018693092081778703     0.03719175978577425      0.0668820046772992
0.24964102870991015       0.016202202803341947     0.24953405946330057      0.24857323379840604      0.23916704511709688      0.17195822217738946      0.12778981334208084      0.13408890455269765      0.13761895467687738
0.25965985722723406       0                        0.25954941431453404      0.25855732043049257      0.24883860634453994      0.1790034154711815       0.13175526351750733      0.13696831451239413      0.13912755245491423
0.26967221576278155       0.01620278681579413      0.269558182492406        0.268533780704908        0.258493186132257        0.18602014903176758      0.1359352572603514       0.14047390481255148      0.14165757026043793
0.27968820245829795       0                        0.27957091641320203      0.2785172188804802       0.26818227895927726      0.19313780696488114      0.13976130364151249      0.14314212606446347      0.14306513804857432
0                         0.44000000000000006      0                        0                        0                        0                        0                        0                        0
0.009189700148230649      0.4356947517781915       0.009188705738683666     0.009179890399430533     0.009105113032919084     0.00949677996121854      0.019167035908330327     0.03794775803309392      0.06819419152464283
0                         0.4500000000000001       0                        0                        0                        0                        0                        0                        0
0.009177074824564901      0.4457187676941557       0.009176233508434606     0.009168796024578069     0.00910778116989825      0.009622281186801293     0.019610265193033657     0.0386521260687509       0.06947756114264626
0.2897017240175085        0.016203082695962958     0.28958105434813636      0.2884968940323566       0.27785699247086765      0.20022129230455113      0.1437992512399223       0.1463818464385304       0.145244192096831
0.29971654768936173       0                        0.2995928650398265       0.2984815517479016       0.287567195322831        0.20742732889502738      0.14749694583383635      0.14885965602327805      0.14655456247409115
0.3097305031167377        0.01620321093385631      0.3096036640525543       0.30846391734315715      0.29726334799398574      0.21459114610509003      0.15140072452078832      0.15185264963166192      0.14844786604701732
0.3197448929204256        0                        0.31961529863952487      0.31845070390331576      0.3069972277573314       0.2219015486551137       0.15498190078974913      0.15415879583072437      0.14966475596289794
0.3297589966638636        0.016203252352704398     0.32962649230685187      0.3284356659364085       0.3167164658373783       0.2291603498609142       0.1587608326171204       0.15692497231865768      0.15132753519086153
0.3397732381514893        0                        0.33963825298863676      0.3384250341175152       0.32647604508200834      0.23659146703987513      0.16223855177591714      0.1590766201329788       0.15245801458907368
0                         0.46                     0                        0                        0                        0                        0                        0                        0
0.009165574667845771      0.45571589790707695      0.009164887957533006     0.009158841920478512     0.00911172327857193      0.00975005777643121      0.02005534751569248      0.039360395706083344     0.07069398653303087
0                         0.4700000000000001       0                        0                        0                        0                        0                        0                        0
0.00914906774194878       0.4656776362052181       0.009148534977114249     0.009143874332082772     0.00911058036271297      0.009871206023165156     0.02048120136854145      0.04003352436392949      0.07190224864103228
0.34978738975561036       0.01620326346645669      0.3496497585469709       0.34841266960363887      0.33622008808479736      0.24396074515528074      0.16590346832614786      0.16163609947874916      0.1539349873068234
0.3598015833825532        0                        0.3596617608587778       0.3584048716861495       0.34600707790590585      0.2515294022568143       0.16929241796376973      0.1636491436385961       0.15498790558079306
0                         0.4800000000000001       0                        0                        0                        0                        0                        0                        0
0.009072840295208457      0.4755846720246714       0.009072464816770149     0.009069218718359773     0.009049950370951408     0.009927443586542016     0.02076809678507678      0.04043761985209073      0.07262654409796128
0                         0.49000000000000016      0                        0                        0                        0                        0                        0                        0
0.009019088483618936      0.48550737378334136      0.00901886687582563      0.009017004875037099     0.009011486923134767     0.010005690521023534     0.021094868912278218     0.040930887912006976     0.07357879898313885
0                         0.5000000000000002       0                        0                        0                        0                        0                        0                        0