% Model:              buoyancy_free.mph
% Version:            COMSOL 6.2.0.339
% Date:               Feb 10 2025, 17:41
% Dimension:          2
% Nodes:              4256
% Expressions:        14
% Description:        Velocity field, x-component, Velocity field, y-component
% Length unit:        m
% x                       y                        u (m/s) @ Ra=1           v (m/s) @ Ra=1           u (m/s) @ Ra=10          v (m/s) @ Ra=10          u (m/s) @ Ra=100         v (m/s) @ Ra=100         u (m/s) @ Ra=1000        v (m/s) @ Ra=1000        u (m/s) @ Ra=10000       v (m/s) @ Ra=10000       u (m/s) @ Ra=1E5         v (m/s) @ Ra=1E5         u (m/s) @ Ra=1E6         v (m/s) @ Ra=1E6
0.0076693196229356        0.02552188231107272      1.371192754109975E-6     -3.3097002489651156E-6   1.3643902875746887E-5    -3.288005199658147E-5    1.2983497511042982E-4    -3.0785281237777617E-4   8.677553470498039E-4     -0.0017875561900155114   0.008641723364259288     -0.021902242792212246    0.1157896404564809       -0.36124820735202756     1.1637693887049598       -4.298471401126958
0                         0.030000000000000013     0                        0                        0                        0                        0                        0                        0                        0                        0                        0                        0                        0                        0                        0
0                         0.020000000000000007     0                        0                        0                        0                        0                        0                        0                        0                        0                        0                        0                        0                        0                        0
0.007654035255731745      0.015878464188420722     5.021587222946215E-7     -7.778012476691565E-7    4.981839119459875E-6     -7.693657958914806E-6    4.599125445868771E-5     -6.884612929465129E-5    2.312914906673238E-4     -2.257757331252314E-4    0.0034733039278973424    -0.0058217267929533125   0.06526917206260922      -0.13620846203688639     0.8175556612468559       -1.911020908708929
0                         0.010000000000000004     0                        0                        0                        0                        0                        0                        0                        0                        0                        0                        0                        0                        0                        0
0                         0                        0                        0                        0                        0                        0                        0                        0                        0                        0                        0                        0                        0                        0                        0
0.0068668152863041315     0.007607048862261397     2.5666807480448227E-8    6.061993076057937E-8     2.4112272162269696E-7    6.188645796334054E-7     9.329895769564391E-7     7.3838643362613825E-6    -6.679870930848871E-5    1.294157588346542E-4     4.4882204604861054E-4    7.91271596433451E-5      0.02408361442776795      -0.01848215006420508     0.40550483262960507      -0.355086768467503
0.011034260205796675      0                        0                        0                        0                        0                        0                        0                        0                        0                        0                        0                        0                        0                        0                        0
0                         0.07                     0                        0                        0                        0                        0                        0                        0                        0                        0                        0                        0                        0                        0                        0
0                         0.060000000000000026     0                        0                        0                        0                        0                        0                        0                        0                        0                        0                        0                        0                        0                        0
0.00904059842049107       0.06538391726515017      6.259315036080578E-6     -4.262949139756833E-5    6.242991220214028E-5     -4.248455014680312E-4    6.081552828765845E-4     -0.004106401192586027    0.004825254913152236     -0.030883467041171005    0.03523822480406095      -0.25056443092363384     0.28286851659702034      -2.5155994360315717      1.9240907119494424       -21.01452409293231
0                         0.08000000000000003      0                        0                        0                        0                        0                        0                        0                        0                        0                        0                        0                        0                        0                        0
0.008959730214123201      0.07545519435944804      6.936942097757775E-6     -5.673652889365306E-5    6.920274915140652E-5     -5.655699226993833E-4    6.754926228147761E-4     -0.005479352123155544    0.005432035343212664     -0.041889014580814364    0.03846088013889617      -0.3292169875436832      0.29004860311658787      -3.1203431444562715      1.983672666918299        -25.094752544491197
0                         0.09000000000000002      0                        0                        0                        0                        0                        0                        0                        0                        0                        0                        0                        0                        0                        0
0.008908233176209689      0.0854889451862134       7.335574768901166E-6     -7.238246251185133E-5    7.319170109263837E-5     -7.216730078688279E-4    7.155956745217711E-4     -0.007004965611207239    0.005816870170432981     -0.054258632002518015    0.04011922654090974      -0.4152230771429925      0.2871605822609787       -3.7462842839758177      1.9785162349405176       -29.369870925223832
0                         0.05000000000000001      0                        0                        0                        0                        0                        0                        0                        0                        0                        0                        0                        0                        0                        0
0.009201799503460194      0.05523852160681794      5.725481127716928E-6     -2.9976241907917108E-5   5.709170101203715E-5     -2.986488662079803E-4    5.548368435372783E-4     -0.002877628461304122    0.004332485590853634     -0.021163272665965596    0.0327901195012758       -0.1789872427072714      0.2839747271600252       -1.9294063994576016      2.001402092699484        -16.99899706356319
0.008268703117756793      0.03512793965141947      2.62122671228166E-6      -8.652348787732277E-6    2.6112748284008554E-5    -8.608602719786515E-5    2.514030046640424E-4     -8.18413335808841E-4     0.001837582807267882     -0.005429632697256165    0.015780092000278908     -0.05449470416204632     0.17273996337231176      -0.7430714325030694      1.4742485111382708       -7.818501672317098
0                         0.040000000000000015     0                        0                        0                        0                        0                        0                        0                        0                        0                        0                        0                        0                        0                        0
0.008981202967126638      0.04510168992781651      4.386443494187085E-6     -1.807827634797907E-5    4.3723498854778213E-5    -1.8002332331114597E-4   4.233958422472872E-4     -0.0017262302106588242   0.0032252890749902333    -0.01224862655595199     0.025672268286753844     -0.11023857663674473     0.2458184916389082       -1.307551253989921       1.8593577394953622       -12.420944277528436
0.017828538372577696      0.010523910235219147     1.803642954720322E-6     -1.2341399365328155E-6   1.789434217479052E-5     -1.2256035187009828E-5   1.652618126126602E-4     -1.1432390719312657E-4   8.347085364323387E-4     -6.399146099192529E-4    0.01244708628239384      -0.008265903708777165    0.23529103579302804      -0.14273468727687064     3.0692917746248085       -1.8092053720730856
0.0243863778880401        0                        0                        0                        0                        0                        0                        0                        0                        0                        0                        0                        0                        0                        0                        0
0                         0.10000000000000002      0                        0                        0                        0                        0                        0                        0                        0                        0                        0                        0                        0                        0                        0
0.008765178533827496      0.09547320885738747      7.657573110232108E-6     -8.802031772309377E-5    7.641569967633172E-5     -8.777246798460544E-4    7.48190722017435E-4      -0.00853286782042534     0.006140122819484967     -0.06679667797396482     0.04140289146308542      -0.499950174808614       0.28517753068278034      -4.327724852664995       2.0238129398058766       -33.351086483396095
0                         0.11000000000000001      0                        0                        0                        0                        0                        0                        0                        0                        0                        0                        0                        0                        0                        0
0.008643892383075212      0.10536842764054737      7.760437054412696E-6     -1.0421284371764745E-4   7.745129801022125E-5     -0.0010393320760140427   7.592043135451659E-4     -0.010117142932122682    0.006278753271699041     -0.0799060138113969      0.041554396087993696     -0.5867573122292481      0.2785049316856643       -4.904765633282573       2.020723621538196        -37.43195634148926
0                         0.12000000000000005      0                        0                        0                        0                        0                        0                        0                        0                        0                        0                        0                        0                        0                        0
0.008542433230993622      0.11526760663755842      8.026326807081614E-6     -1.2093551409509406E-4   8.011454258812903E-5     -0.0012062501747247196   7.862323000809558E-4     -0.011755368816084674    0.006554391464134619     -0.09356745245814796     0.04268535546484754      -0.6757029743300782      0.28045270597131694      -5.482048735393994       2.063583563267392        -41.56401407527914
0.040538720060796285      0                        0                        0                        0                        0                        0                        0                        0                        0                        0                        0                        0                        0                        0                        0
0.033969335607671514      0.013013572072134494     1.364588625099232E-5     -6.496552213132918E-6    1.3583989047342653E-4    -6.472259523696801E-5    0.0012981894154873096    -6.234752518267119E-4    0.008977233603909765     -0.004575874604576514    0.08500756266872889      -0.039460334899122367    1.100972293012485        -0.45148450502770565     11.963501320669286       -4.68339039760066
0                         0.13000000000000006      0                        0                        0                        0                        0                        0                        0                        0                        0                        0                        0                        0                        0                        0
0.00853254031281725       0.1253566723908432       8.133505270979441E-6     -1.3963472345202983E-4   8.11923971158283E-5      -0.0013929075922961933   7.975867396011806E-4     -0.013588335861521845    0.0066941969885427185    -0.10891434395910911     0.04306840846729831      -0.7749604755983815      0.28003733258731334      -6.128263433536303       2.0807920282226178       -46.26163290381689
0.008809157029206045      0.13496869589431618      8.564934307282335E-6     -1.6300557259309572E-4   8.550795692300152E-5     -0.0016261927575138052   8.40832038598679E-4      -0.015878716802933998    0.007107093861496554     -0.12807412010547028     0.04527064244950612      -0.8997770192673364      0.29163706537262124      -6.96324270003982        2.151367076881605        -52.304153179949374
0                         0.14000000000000004      0                        0                        0                        0                        0                        0                        0                        0                        0                        0                        0                        0                        0                        0
0.008768652313920376      0.14486079396171955      8.672328155977566E-6     -1.8186989827378934E-4   8.659045976279469E-5     -0.0018145425907416942   8.524738084893286E-4     -0.01773256460899675     0.007264680156000417     -0.14384569912994263     0.04585026281046059      -0.9994525334543584      0.2917339899881108       -7.594845768726102       2.028427082879345        -56.760931889524606
0                         0.15000000000000005      0                        0                        0                        0                        0                        0                        0                        0                        0                        0                        0                        0                        0                        0
0.05021862354317602       0.014184162004066247     3.798430077888433E-5     -1.1787326487960012E-5   3.7847531567100856E-4    -1.1753512575534581E-4   0.0036509071535972526    -0.0011420116752692226   0.02707189441382932      -0.00890724289673455     0.2299184428041002       -0.07013144272772022     2.5638124518854273       -0.6930970905647394      25.332033037446084       -6.506965294103796
0.059376728032910164      0                        0                        0                        0                        0                        0                        0                        0                        0                        0                        0                        0                        0                        0                        0
0.008650392914893685      0.1550051798798508       8.634231171902585E-6     -1.9930539197925615E-4   8.621755225526591E-5     -0.001988657706955747    8.495309560058903E-4     -0.019449333046687913    0.007287200832776056     -0.15863062437992229     0.04590388727208514      -1.0914867838744982      0.2947059280042526       -8.16425257041391        2.0706664703342255       -60.55746297807382
0                         0.16000000000000003      0                        0                        0                        0                        0                        0                        0                        0                        0                        0                        0                        0                        0                        0
0                         0.17000000000000004      0                        0                        0                        0                        0                        0                        0                        0                        0                        0                        0                        0                        0                        0
0.00880823346680659       0.16518151523451438      8.909858021444258E-6     -2.2330331321011713E-4   8.897682148730747E-5     -0.002228276226729992    8.774030630655326E-4     -0.02180905540712205     0.007573619497838114     -0.17880953767532304     0.04778365596807666      -1.2202036262839207      0.3100594485110953       -9.008556825857143       2.123228889266531        -66.32135950537993
0                         0.18000000000000005      0                        0                        0                        0                        0                        0                        0                        0                        0                        0                        0                        0                        0                        0
0.008853312534846799      0.17509258977752265      9.05908757514004E-6      -2.4468025791906E-4      9.047765173966618E-5     -0.002441759799115637    8.932332199668125E-4     -0.02391483987797632     0.007778789668107068     -0.1970325659980371      0.049152600802681294     -1.3356034722142258      0.31818615146403567      -9.754927269091786       2.051948396040613        -71.12101342112622
0.06914536917629295       0.01566107404724847      8.30182217247511E-5      -1.938337563031793E-5    8.276966840215155E-4     -1.9339132145448112E-4   0.008032313246978388     -0.0018898952169305214   0.062137458715875594     -0.015321802004707535    0.4943264469387451       -0.11405171643951696     4.944543171520457        -1.00643128428106        44.86944011916297        -8.338159302045554
0.07940475014765969       0                        0                        0                        0                        0                        0                        0                        0                        0                        0                        0                        0                        0                        0                        0
0.008934043152690613      0.18496341679980885      9.00116759657643E-6      -2.669188681873734E-4    8.990686261615973E-5     -0.0026638614486081576   8.8835401286443E-4       -0.0261069101990944      0.0077909669584442535    -0.21609810612976452     0.04954001042772935      -1.4570979618595497      0.32303855937636244      -10.546542832191347      2.051862548965403        -76.07098863585037
0                         0.19000000000000003      0                        0                        0                        0                        0                        0                        0                        0                        0                        0                        0                        0                        0                        0
0.08896757513303588       0.01594413147279219      1.3773118147396204E-4    -2.3968126100810425E-5   0.0013737272841413866    -2.3924286722352243E-4   0.013382646731136523     -0.0023483441762179006   0.10628151017289215      -0.01959459009914205     0.8134797454010275       -0.1402372622920485      7.557214024698303        -1.1199201808247088      63.77192760979536        -7.706700592875252
0.09943309537872358       0                        0                        0                        0                        0                        0                        0                        0                        0                        0                        0                        0                        0                        0                        0
0.009055225630387133      0.19491592494422805      9.024716001022058E-6     -2.905984606578736E-4    9.015131989535608E-5     -0.0029003688478204804   8.916760614524798E-4     -0.028442575328904807    0.007884249769519366     -0.23651748520427215     0.05047276117228556      -1.588072206273871       0.32987253621933216      -11.402285993345975      2.0050253745381403       -81.2136633060652
0                         0.20000000000000007      0                        0                        0                        0                        0                        0                        0                        0                        0                        0                        0                        0                        0                        0
0.00898161059603693       0.20494009646339362      8.735622951617378E-6     -3.083259894139355E-4    8.727674305926215E-5     -0.003077489494281195    8.645398372375822E-4     -0.030197721991242297    0.007731945125064396     -0.25224772753597496     0.04972846361128802      -1.688443757953756       0.3190664642555526       -12.039320169315145      1.6184054076969903       -84.58048026546815
0                         0.21000000000000005      0                        0                        0                        0                        0                        0                        0                        0                        0                        0                        0                        0                        0                        0
0                         0.22000000000000003      0                        0                        0                        0                        0                        0                        0                        0                        0                        0                        0                        0                        0                        0
0.008894383151835276      0.21512373286199177      8.53577353117149E-6      -3.2476731366891344E-4   8.528794500922189E-5     -0.0032417892682815494   8.456224568527314E-4     -0.031828753228202646    0.007625573796812425     -0.2670693664896498      0.049774205886880814     -1.7838145880361118      0.322589316938783        -12.636769189071176      1.6648746864892676       -87.27952385361512
0                         0.23                     0                        0                        0                        0                        0                        0                        0                        0                        0                        0                        0                        0                        0                        0
0.009094264015196219      0.22531164632398937      8.707652608520499E-6     -3.515221365410052E-4    8.701584913632872E-5     -0.003509064061255726    8.637945787355361E-4     -0.034473472302027235    0.007869288408779004     -0.29059585508198205     0.05209050797350726      -1.9388295432274598      0.33568703443887515      -13.65130506041662       1.5608735623043162       -92.60315207369864
0.10916040076660984       0.015867443447679375     1.9850233645202168E-4    -2.633396780176236E-5    0.001980467294312373     -2.629578745036052E-4    0.019351612787104067     -0.0025906517815372653   0.15679864834755972      -0.022124625781325704    1.166031777428454        -0.15317605308867052     10.167062269379521       -1.0998339799520307      79.07398051406203        -5.593584585656463
0.11946144060978736       0                        0                        0                        0                        0                        0                        0                        0                        0                        0                        0                        0                        0                        0                        0
0                         0.24000000000000005      0                        0                        0                        0                        0                        0                        0                        0                        0                        0                        0                        0                        0                        0
0.009212098729581559      0.23539691744409322      8.604239199980333E-6     -3.7523877891507997E-4   8.599762887185967E-5     -0.0037460395855068718   8.551798956610027E-4     -0.03682341404675343     0.007899527399442571     -0.31185046194092864     0.052990967750509814     -2.0799909901209808      0.3354034197572759       -14.552944628912615      1.447290098423629        -96.72432085635684
0                         0.2500000000000001       0                        0                        0                        0                        0                        0                        0                        0                        0                        0                        0                        0                        0                        0
0.009241887759586528      0.24545293142699523      8.483556891796656E-6     -3.951858836595844E-4    8.479925993010623E-5     -0.003945399792559172    8.440497392512934E-4     -0.03880523844549385     0.007865929660884993     -0.3301333897384123      0.05382732018157146      -2.2035784896342467      0.3428884491519426       -15.335185935150507      1.4840911209608405       -100.15623599503259
0.12925119427689663       0.016047811000572735     2.6752117771070087E-4    -2.843777569487256E-5    0.002669764656486055     -2.840609760051851E-4    0.026153018505561853     -0.002807672258213319    0.21543335536568917      -0.0244586860383316      1.562908314718773        -0.16360215798113772     12.810826718009276       -1.0312753844973026      90.43691502823641        -3.048091059400194
0.13948978584085125       0                        0                        0                        0                        0                        0                        0                        0                        0                        0                        0                        0                        0                        0                        0
0                         0.27000000000000013      0                        0                        0                        0                        0                        0                        0                        0                        0                        0                        0                        0                        0                        0
0                         0.2600000000000001       0                        0                        0                        0                        0                        0                        0                        0                        0                        0                        0                        0                        0                        0
0.00911854530053245       0.265437827156171        7.692052478000202E-6     -4.258109973906816E-4    7.691388669902527E-5     -0.00425163667997533     7.68163745012521E-4      -0.041864851958846726    0.007360680852453197     -0.3594812861225098      0.05219094184548675      -2.40859642866255        0.32008322659436184      -16.585846773825853      1.0547443362472182       -104.46478925544325
0.009234026441771315      0.2554452746652975       8.366243901728955E-6     -4.1319036060561467E-4   8.363968367502873E-5     -0.0041253890067465505   8.338008935047505E-4     -0.040598874325680316    0.007871768677343445     -0.34700134383206666     0.05485033237380286      -2.319540044494715       0.34578465271557907      -16.051948269072465      1.4184382720332984       -102.8469493761434
0                         0.2800000000000001       0                        0                        0                        0                        0                        0                        0                        0                        0                        0                        0                        0                        0                        0
0.00905480046162791       0.27555858467419503      7.340353872949656E-6     -4.3953285590166065E-4   7.341136476365067E-5     -0.004388899944822079    7.345850106701333E-4     -0.043241291304054325    0.00714831587476735      -0.37306713167190364     0.05165418201600974      -2.5064393818925272      0.31127223315357555      -17.155726160834732      1.107237140092325        -105.90659788458758
0                         0.29000000000000004      0                        0                        0                        0                        0                        0                        0                        0                        0                        0                        0                        0                        0                        0
0.009116298212348347      0.285657464811936        7.241242263274833E-6     -4.5877802114660944E-4   7.24317014075429E-5      -0.004581338510020221    7.259362680435423E-4     -0.04516364217692862     0.007160829943619544     -0.39155791277358576     0.05287732473607263      -2.6395969719571037      0.31575255626494986      -17.957717212098046      1.0991099877283108       -108.95855847027123
0.1493357088251796        0.016160106203232126     3.395926320247361E-4     -2.95249262109484E-5     0.003389773779221623     -2.9501063422150714E-4   0.03327892543923455      -0.0029245074267842466   0.27798566178545453      -0.02592204283206237     1.97150964296625         -0.16691560057027297     15.180979831425256       -0.8921299398955095      95.99067424501249        -0.3810313614511284